DF-ISE text

Info {
  version   = 1.0
  type      = xyplot
  datasets  = [
    "time"
    "S OuterVoltage" "S InnerVoltage" "S QuasiFermiPotential" "S DisplacementCurrent" "S eCurrent"
    "S hCurrent" "S TotalCurrent" "S Charge" "D OuterVoltage" "D InnerVoltage"
    "D QuasiFermiPotential" "D DisplacementCurrent" "D eCurrent" "D hCurrent" "D TotalCurrent"
    "D Charge" "G OuterVoltage" "G InnerVoltage" "G QuasiFermiPotential" "G DisplacementCurrent"
    "G eCurrent" "G hCurrent" "G TotalCurrent" "G Charge" ]
  functions = [
    Time
    OuterVoltage InnerVoltage QuasiFermiPotential DisplacementCurrent eCurrent
    hCurrent TotalCurrent Charge OuterVoltage InnerVoltage
    QuasiFermiPotential DisplacementCurrent eCurrent hCurrent TotalCurrent
    Charge OuterVoltage InnerVoltage QuasiFermiPotential DisplacementCurrent
    eCurrent hCurrent TotalCurrent Charge ]
}

Data {
      0.00000000000000E+00
      0.00000000000000E+00   0.00000000000000E+00   0.00000000000000E+00   0.00000000000000E+00  -3.27290447114222E-21
      5.83065593812356E-37  -3.27290447114222E-21   6.01470695755854E-18   0.00000000000000E+00   0.00000000000000E+00
      0.00000000000000E+00   0.00000000000000E+00  -6.59782131573196E-21   8.24891637310851E-37  -6.59782131573196E-21
      7.08434707726626E-18   0.00000000000000E+00   0.00000000000000E+00   0.00000000000000E+00   0.00000000000000E+00
      0.00000000000000E+00   0.00000000000000E+00   0.00000000000000E+00  -2.85574955836685E-19
      0.00000000000000E+00
      0.00000000000000E+00   0.00000000000000E+00   0.00000000000000E+00   0.00000000000000E+00   2.46792359525477E-21
     -2.08236158665357E-34   2.46792359525457E-21   6.01470696337833E-18   0.00000000000000E+00   0.00000000000000E+00
      0.00000000000000E+00   0.00000000000000E+00   7.87792068244220E-22  -2.06612491502090E-34   7.87792068244014E-22
      7.08434664787920E-18   0.00000000000000E+00   0.00000000000000E+00   0.00000000000000E+00   0.00000000000000E+00
      0.00000000000000E+00   0.00000000000000E+00   0.00000000000000E+00  -2.85574552210003E-19
      1.00000000000000E-03
      0.00000000000000E+00   0.00000000000000E+00   0.00000000000000E+00   0.00000000000000E+00  -1.38218217695854E-13
     -4.35546592634800E-26  -1.38218217695898E-13   6.01461951780101E-18   5.00000000000000E-05   5.00000000000000E-05
      0.00000000000000E+00   0.00000000000000E+00   1.39427548576433E-13   4.05139880165150E-26   1.39427548576474E-13
      7.08465026686976E-18   0.00000000000000E+00   0.00000000000000E+00   0.00000000000000E+00   0.00000000000000E+00
      0.00000000000000E+00   0.00000000000000E+00   0.00000000000000E+00  -2.85835814437143E-19
      2.18666666666667E-03
      0.00000000000000E+00   0.00000000000000E+00   0.00000000000000E+00   0.00000000000000E+00  -3.01773055955678E-13
     -9.52998914235679E-26  -3.01773055955773E-13   6.01451573847723E-18   1.09333333333333E-04   1.09333333333333E-04
      0.00000000000000E+00   0.00000000000000E+00   3.01773065758772E-13   8.85354318808818E-26   3.01773065758861E-13
      7.08501054216486E-18   0.00000000000000E+00   0.00000000000000E+00   0.00000000000000E+00   0.00000000000000E+00
      0.00000000000000E+00   0.00000000000000E+00   0.00000000000000E+00  -2.86145841103276E-19
      3.61066666666667E-03
      0.00000000000000E+00   0.00000000000000E+00   0.00000000000000E+00   0.00000000000000E+00  -4.97347887616465E-13
     -1.57416504904896E-25  -4.97347887616622E-13   6.01439130946432E-18   1.80533333333333E-04   1.80533333333333E-04
      0.00000000000000E+00   0.00000000000000E+00   4.97347912389563E-13   1.46144977007172E-25   4.97347912389709E-13
      7.08544296955497E-18   0.00000000000000E+00   0.00000000000000E+00   0.00000000000000E+00   0.00000000000000E+00
      0.00000000000000E+00   0.00000000000000E+00   0.00000000000000E+00  -2.86517808163625E-19
      5.31946666666667E-03
      0.00000000000000E+00   0.00000000000000E+00   0.00000000000000E+00   0.00000000000000E+00  -7.31020229854459E-13
     -2.32018709020851E-25  -7.31020229854691E-13   6.01424208963376E-18   2.65973333333333E-04   2.65973333333333E-04
      0.00000000000000E+00   0.00000000000000E+00   7.31020231100798E-13   2.15222586301787E-25   7.31020231101013E-13
      7.08596196266459E-18   0.00000000000000E+00   0.00000000000000E+00   0.00000000000000E+00   0.00000000000000E+00
      0.00000000000000E+00   0.00000000000000E+00   0.00000000000000E+00  -2.86964103032250E-19
      7.37002666666667E-03
      0.00000000000000E+00   0.00000000000000E+00   0.00000000000000E+00   0.00000000000000E+00  -1.00993823820351E-12
     -3.21625831409034E-25  -1.00993823820383E-12   6.01406317157832E-18   3.68501333333333E-04   3.68501333333333E-04
      0.00000000000000E+00   0.00000000000000E+00   1.00993831416347E-12   2.98042318285016E-25   1.00993831416376E-12
      7.08658487913245E-18   0.00000000000000E+00   0.00000000000000E+00   0.00000000000000E+00   0.00000000000000E+00
      0.00000000000000E+00   0.00000000000000E+00   0.00000000000000E+00  -2.87499558090449E-19
      9.83069866666667E-03
      0.00000000000000E+00   0.00000000000000E+00   0.00000000000000E+00   0.00000000000000E+00  -1.34246980477204E-12
     -4.29267690143722E-25  -1.34246980477247E-12   6.01384869425917E-18   4.91534933333333E-04   4.91534933333333E-04
      0.00000000000000E+00   0.00000000000000E+00   1.34246977356310E-12   3.97327029278800E-25   1.34246977356350E-12
      7.08733257335351E-18   0.00000000000000E+00   0.00000000000000E+00   0.00000000000000E+00   0.00000000000000E+00
      0.00000000000000E+00   0.00000000000000E+00   0.00000000000000E+00  -2.88141954941860E-19
      1.27835050666667E-02
      0.00000000000000E+00   0.00000000000000E+00   0.00000000000000E+00   0.00000000000000E+00  -1.73835400797078E-12
     -5.58620294913071E-25  -1.73835400797134E-12   6.01359160639451E-18   6.39175253333333E-04   6.39175253333333E-04
      0.00000000000000E+00   0.00000000000000E+00   1.73835399838122E-12   5.16305387195716E-25   1.73835399838173E-12
      7.08823004721679E-18   0.00000000000000E+00   0.00000000000000E+00   0.00000000000000E+00   0.00000000000000E+00
      0.00000000000000E+00   0.00000000000000E+00   0.00000000000000E+00  -2.88912634673946E-19
      1.63268727466667E-02
      0.00000000000000E+00   0.00000000000000E+00   0.00000000000000E+00   0.00000000000000E+00  -2.20884397088538E-12
     -7.14086954232847E-25  -2.20884397088610E-12   6.01328354449504E-18   8.16343637333333E-04   8.16343637333333E-04
      0.00000000000000E+00   0.00000000000000E+00   2.20884395280430E-12   6.58859763914816E-25   2.20884395280495E-12
      7.08930739666099E-18   0.00000000000000E+00   0.00000000000000E+00   0.00000000000000E+00   0.00000000000000E+00
      0.00000000000000E+00   0.00000000000000E+00   0.00000000000000E+00  -2.89837151404773E-19
      2.05789139626667E-02
      0.00000000000000E+00   0.00000000000000E+00   0.00000000000000E+00   0.00000000000000E+00  -2.76682320599201E-12
     -9.01000326764561E-25  -2.76682320599291E-12   6.01291449951169E-18   1.02894569813333E-03   1.02894569813333E-03
      0.00000000000000E+00   0.00000000000000E+00   2.76682325209443E-12   8.29601290725049E-25   2.76682325209526E-12
      7.09060075454424E-18   0.00000000000000E+00   0.00000000000000E+00   0.00000000000000E+00   0.00000000000000E+00
      0.00000000000000E+00   0.00000000000000E+00   0.00000000000000E+00  -2.90946145556196E-19
      2.56813634218667E-02
      0.00000000000000E+00   0.00000000000000E+00   0.00000000000000E+00   0.00000000000000E+00  -3.42686955530756E-12
     -1.12579424753029E-24  -3.42686955530868E-12   6.01247256549041E-18   1.28406817109333E-03   1.28406817109333E-03
      0.00000000000000E+00   0.00000000000000E+00   3.42686956413597E-12   1.03402789308111E-24   3.42686956413700E-12
      7.09215357337548E-18   0.00000000000000E+00   0.00000000000000E+00   0.00000000000000E+00   0.00000000000000E+00
      0.00000000000000E+00   0.00000000000000E+00   0.00000000000000E+00  -2.92276318623527E-19
      3.18043027729067E-02
      0.00000000000000E+00   0.00000000000000E+00   0.00000000000000E+00   0.00000000000000E+00  -4.20522722202792E-12
     -1.39628130914649E-24  -4.20522722202931E-12   6.01194352632930E-18   1.59021513864533E-03   1.59021513864533E-03
      0.00000000000000E+00   0.00000000000000E+00   4.20522721941261E-12   1.27864444876989E-24   4.20522721941389E-12
      7.09401804796056E-18   0.00000000000000E+00   0.00000000000000E+00   0.00000000000000E+00   0.00000000000000E+00
      0.00000000000000E+00   0.00000000000000E+00   0.00000000000000E+00  -2.93871654471422E-19
      3.91518299941547E-02
      0.00000000000000E+00   0.00000000000000E+00   0.00000000000000E+00   0.00000000000000E+00  -5.11963276524905E-12
     -1.72188644708430E-24  -5.11963276525077E-12   6.01131057614783E-18   1.95759149970773E-03   1.95759149970773E-03
      0.00000000000000E+00   0.00000000000000E+00   5.11963277637670E-12   1.57119867020300E-24   5.11963277637827E-12
      7.09625704166284E-18   0.00000000000000E+00   0.00000000000000E+00   0.00000000000000E+00   0.00000000000000E+00
      0.00000000000000E+00   0.00000000000000E+00   0.00000000000000E+00  -2.95784777534548E-19
      4.79688626596523E-02
      0.00000000000000E+00   0.00000000000000E+00   0.00000000000000E+00   0.00000000000000E+00  -6.18892020470098E-12
     -2.11413200993455E-24  -6.18892020470309E-12   6.01055364889799E-18   2.39844313298261E-03   2.39844313298261E-03
      0.00000000000000E+00   0.00000000000000E+00   6.18892019791719E-12   1.92076879474378E-24   6.18892019791911E-12
      7.09894604995877E-18   0.00000000000000E+00   0.00000000000000E+00   0.00000000000000E+00   0.00000000000000E+00
      0.00000000000000E+00   0.00000000000000E+00   0.00000000000000E+00  -2.98078739407984E-19
      5.85493018582494E-02
      0.00000000000000E+00   0.00000000000000E+00   0.00000000000000E+00   0.00000000000000E+00  -7.43230700137884E-12
     -2.58684898325490E-24  -7.43230700138143E-12   6.00964935596579E-18   2.92746509291247E-03   2.92746509291247E-03
      0.00000000000000E+00   0.00000000000000E+00   7.43230699518796E-12   2.33820158776125E-24   7.43230699519030E-12
      7.10217631206533E-18   0.00000000000000E+00   0.00000000000000E+00   0.00000000000000E+00   0.00000000000000E+00
      0.00000000000000E+00   0.00000000000000E+00   0.00000000000000E+00  -3.00828798709532E-19
      7.12458288965659E-02
      0.00000000000000E+00   0.00000000000000E+00   0.00000000000000E+00   0.00000000000000E+00  -8.86823941498946E-12
     -3.15713043386455E-24  -8.86823941499262E-12   6.00856971943614E-18   3.56229144482830E-03   3.56229144482830E-03
      0.00000000000000E+00   0.00000000000000E+00   8.86823946641645E-12   2.83598827966579E-24   8.86823946641928E-12
      7.10605731275967E-18   0.00000000000000E+00   0.00000000000000E+00   0.00000000000000E+00   0.00000000000000E+00
      0.00000000000000E+00   0.00000000000000E+00   0.00000000000000E+00  -3.04125121710384E-19
      8.63123743153682E-02
      0.00000000000000E+00   0.00000000000000E+00   0.00000000000000E+00   0.00000000000000E+00  -1.04948590460007E-11
     -3.83798564793225E-24  -1.04948590460045E-11   6.00729651205157E-18   4.31561871576841E-03   4.31561871576841E-03
      0.00000000000000E+00   0.00000000000000E+00   1.04948590455389E-11   3.42227000559673E-24   1.04948590455423E-11
      7.11066955187107E-18   0.00000000000000E+00   0.00000000000000E+00   0.00000000000000E+00   0.00000000000000E+00
      0.00000000000000E+00   0.00000000000000E+00   0.00000000000000E+00  -3.08031379690113E-19
      1.04191341545680E-01
      0.00000000000000E+00   0.00000000000000E+00   0.00000000000000E+00   0.00000000000000E+00  -1.23199119746447E-11
     -4.65161682624767E-24  -1.23199119746494E-11   6.00579686101070E-18   5.20956707728401E-03   5.20956707728401E-03
      0.00000000000000E+00   0.00000000000000E+00   1.23199119599103E-11   4.11165689040599E-24   1.23199119599144E-11
      7.11615229551403E-18   0.00000000000000E+00   0.00000000000000E+00   0.00000000000000E+00   0.00000000000000E+00
      0.00000000000000E+00   0.00000000000000E+00   0.00000000000000E+00  -3.12659228770811E-19
      1.25407715992317E-01
      0.00000000000000E+00   0.00000000000000E+00   0.00000000000000E+00   0.00000000000000E+00  -1.43439467073215E-11
     -5.62498422805223E-24  -1.43439467073271E-11   6.00403299825626E-18   6.27038579961586E-03   6.27038579961586E-03
      0.00000000000000E+00   0.00000000000000E+00   1.43439467335137E-11   4.92060594939510E-24   1.43439467335187E-11
      7.12267183585787E-18   0.00000000000000E+00   0.00000000000000E+00   0.00000000000000E+00   0.00000000000000E+00
      0.00000000000000E+00   0.00000000000000E+00   0.00000000000000E+00  -3.18140314946866E-19
      1.50584480335660E-01
      0.00000000000000E+00   0.00000000000000E+00   0.00000000000000E+00   0.00000000000000E+00  -1.65571703427726E-11
     -6.79077080887806E-24  -1.65571703427794E-11   6.00196206341787E-18   7.52922401678299E-03   7.52922401678299E-03
      0.00000000000000E+00   0.00000000000000E+00   1.65571703370216E-11   5.86747458917580E-24   1.65571703370275E-11
      7.13042716630185E-18   0.00000000000000E+00   0.00000000000000E+00   0.00000000000000E+00   0.00000000000000E+00
      0.00000000000000E+00   0.00000000000000E+00   0.00000000000000E+00  -3.24629557199835E-19
      1.80460907356426E-01
      0.00000000000000E+00   0.00000000000000E+00   0.00000000000000E+00   0.00000000000000E+00  -1.89359185531074E-11
     -8.18876215370159E-24  -1.89359185531156E-11   5.99953573853020E-18   9.02304536782131E-03   9.02304536782131E-03
      0.00000000000000E+00   0.00000000000000E+00   1.89359185367796E-11   6.97225231822618E-24   1.89359185367865E-11
      7.13965653514598E-18   0.00000000000000E+00   0.00000000000000E+00   0.00000000000000E+00   0.00000000000000E+00
      0.00000000000000E+00   0.00000000000000E+00   0.00000000000000E+00  -3.32309065341077E-19
      2.15914267421069E-01
      0.00000000000000E+00   0.00000000000000E+00   0.00000000000000E+00   0.00000000000000E+00  -2.14391063455789E-11
     -9.86735062615420E-24  -2.14391063455888E-11   5.99670038493335E-18   1.07957133710535E-02   1.07957133710535E-02
      0.00000000000000E+00   0.00000000000000E+00   2.14391063622134E-11   8.25612623843194E-24   2.14391063622216E-11
      7.15064573982879E-18   0.00000000000000E+00   0.00000000000000E+00   0.00000000000000E+00   0.00000000000000E+00
      0.00000000000000E+00   0.00000000000000E+00   0.00000000000000E+00  -3.41392456411166E-19
      2.57985588031112E-01
      0.00000000000000E+00   0.00000000000000E+00   0.00000000000000E+00   0.00000000000000E+00  -2.40056943266951E-11
     -1.18854531136619E-23  -2.40056943267070E-11   5.99339737120656E-18   1.28992794015556E-02   1.28992794015556E-02
      0.00000000000000E+00   0.00000000000000E+00   2.40056942820355E-11   9.74053161716553E-24   2.40056942820453E-11
      7.16373804083865E-18   0.00000000000000E+00   0.00000000000000E+00   0.00000000000000E+00   0.00000000000000E+00
      0.00000000000000E+00   0.00000000000000E+00   0.00000000000000E+00  -3.52129815996384E-19
      3.07910221821696E-01
      0.00000000000000E+00   0.00000000000000E+00   0.00000000000000E+00   0.00000000000000E+00  -2.65540898519913E-11
     -1.43144871489129E-23  -2.65540898520056E-11   5.98956433329377E-18   1.53955110910848E-02   1.53955110910848E-02
      0.00000000000000E+00   0.00000000000000E+00   2.65540898492245E-11   1.14456695199834E-23   2.65540898492359E-11
      7.17934667340972E-18   0.00000000000000E+00   0.00000000000000E+00   0.00000000000000E+00   0.00000000000000E+00
      0.00000000000000E+00   0.00000000000000E+00   0.00000000000000E+00  -3.64813052867589E-19
      3.67154120586523E-01
      0.00000000000000E+00   0.00000000000000E+00   0.00000000000000E+00   0.00000000000000E+00  -2.89847158070965E-11
     -1.72407580411450E-23  -2.89847158071138E-11   5.98513690862186E-18   1.83577060293261E-02   1.83577060293261E-02
      0.00000000000000E+00   0.00000000000000E+00   2.89847157965124E-11   1.33879416985313E-23   2.89847157965258E-11
      7.19796972758080E-18   0.00000000000000E+00   0.00000000000000E+00   0.00000000000000E+00   0.00000000000000E+00
      0.00000000000000E+00   0.00000000000000E+00   0.00000000000000E+00  -3.79781980267377E-19
      4.37456880454117E-01
      0.00000000000000E+00   0.00000000000000E+00   0.00000000000000E+00   0.00000000000000E+00  -3.11875378515697E-11
     -2.07673424822191E-23  -3.11875378515905E-11   5.98005223703592E-18   2.18728440227058E-02   2.18728440227058E-02
      0.00000000000000E+00   0.00000000000000E+00   3.11875378207081E-11   1.55763364648598E-23   3.11875378207237E-11
      7.22020896804875E-18   0.00000000000000E+00   0.00000000000000E+00   0.00000000000000E+00   0.00000000000000E+00
      0.00000000000000E+00   0.00000000000000E+00   0.00000000000000E+00  -3.97430617075854E-19
      5.20882822163662E-01
      0.00000000000000E+00   0.00000000000000E+00   0.00000000000000E+00   0.00000000000000E+00  -3.30555402040756E-11
     -2.50150895881493E-23  -3.30555402041006E-11   5.97425418122863E-18   2.60441411081831E-02   2.60441411081831E-02
      0.00000000000000E+00   0.00000000000000E+00   3.30555402348263E-11   1.80072358738285E-23   3.30555402348444E-11
      7.24679279250611E-18   0.00000000000000E+00   0.00000000000000E+00   0.00000000000000E+00   0.00000000000000E+00
      0.00000000000000E+00   0.00000000000000E+00   0.00000000000000E+00  -4.18213845782845E-19
      6.19881606325655E-01
      0.00000000000000E+00   0.00000000000000E+00   0.00000000000000E+00   0.00000000000000E+00  -3.45011159866303E-11
     -3.01221570113383E-23  -3.45011159866604E-11   5.96769994518512E-18   3.09940803162828E-02   3.09940803162828E-02
      0.00000000000000E+00   0.00000000000000E+00   3.45011160129844E-11   2.06573187026919E-23   3.45011160130051E-11
      7.27860322855732E-18   0.00000000000000E+00   0.00000000000000E+00   0.00000000000000E+00   0.00000000000000E+00
      0.00000000000000E+00   0.00000000000000E+00   0.00000000000000E+00  -4.42654684333166E-19
      7.37360163531221E-01
      0.00000000000000E+00   0.00000000000000E+00   0.00000000000000E+00   0.00000000000000E+00  -3.54764706260520E-11
     -3.62379389901867E-23  -3.54764706260883E-11   5.96037098252680E-18   3.68680081765610E-02   3.68680081765610E-02
      0.00000000000000E+00   0.00000000000000E+00   3.54764706052547E-11   2.34757219823391E-23   3.54764706052782E-11
      7.31671007627565E-18   0.00000000000000E+00   0.00000000000000E+00   0.00000000000000E+00   0.00000000000000E+00
      0.00000000000000E+00   0.00000000000000E+00   0.00000000000000E+00  -4.71350854839178E-19
      8.75201670652418E-01
      0.00000000000000E+00   0.00000000000000E+00   0.00000000000000E+00   0.00000000000000E+00  -3.59901768726306E-11
     -4.34286643441574E-23  -3.59901768726740E-11   5.95237255777525E-18   4.37600835326209E-02   4.37600835326209E-02
      0.00000000000000E+00   0.00000000000000E+00   3.59901768369124E-11   2.63459213121017E-23   3.59901768369387E-11
      7.36189305754050E-18   0.00000000000000E+00   0.00000000000000E+00   0.00000000000000E+00   0.00000000000000E+00
      0.00000000000000E+00   0.00000000000000E+00   0.00000000000000E+00  -5.04606688440432E-19
      1.00000000000000E+00
      0.00000000000000E+00   0.00000000000000E+00   0.00000000000000E+00   0.00000000000000E+00  -3.61251369457457E-11
     -4.98929314056914E-23  -3.61251369457956E-11   5.94566818721316E-18   5.00000000000000E-02   5.00000000000000E-02
      0.00000000000000E+00   0.00000000000000E+00   3.61251369231840E-11   2.85603842519241E-23   3.61251369232126E-11
      7.40321206102871E-18   0.00000000000000E+00   0.00000000000000E+00   0.00000000000000E+00   0.00000000000000E+00
      0.00000000000000E+00   0.00000000000000E+00   0.00000000000000E+00  -5.34341360266258E-19
      0.00000000000000E+00
      0.00000000000000E+00   0.00000000000000E+00   0.00000000000000E+00   0.00000000000000E+00  -3.61251362259164E-11
     -4.98928094330090E-23  -3.61251362259663E-11   5.94566829964911E-18   5.00000000000000E-02   5.00000000000000E-02
      0.00000000000000E+00   0.00000000000000E+00   3.61251362085662E-11   2.85604002171047E-23   3.61251362085948E-11
      7.40321217396719E-18   0.00000000000000E+00   0.00000000000000E+00   0.00000000000000E+00   0.00000000000000E+00
      0.00000000000000E+00   0.00000000000000E+00   0.00000000000000E+00  -5.34341306000046E-19
      1.00000000000000E-03
      0.00000000000000E+00   0.00000000000000E+00   0.00000000000000E+00   0.00000000000000E+00  -3.68787167621955E-11
     -4.98957675682278E-23  -3.68787167622454E-11   5.94404526525746E-18   5.00000000000000E-02   5.00000000000000E-02
      0.00000000000000E+00   0.00000000000000E+00   3.68787167594798E-11   2.85594927918137E-23   3.68787167595084E-11
      7.40022866892337E-18   7.00000000000000E-04   7.00000000000000E-04   0.00000000000000E+00   0.00000000000000E+00
      0.00000000000000E+00   0.00000000000000E+00   0.00000000000000E+00  -5.28591778989868E-19
      2.17333333333333E-03
      0.00000000000000E+00   0.00000000000000E+00   0.00000000000000E+00   0.00000000000000E+00  -3.77831723009801E-11
     -4.98992715875279E-23  -3.77831723010300E-11   5.94214086835216E-18   5.00000000000000E-02   5.00000000000000E-02
      0.00000000000000E+00   0.00000000000000E+00   3.77831723085035E-11   2.85584245792200E-23   3.77831723085320E-11
      7.39672648204209E-18   1.52133333333333E-03   1.52133333333333E-03   0.00000000000000E+00   0.00000000000000E+00
      0.00000000000000E+00   0.00000000000000E+00   0.00000000000000E+00  -5.21844017551007E-19
      3.58133333333333E-03
      0.00000000000000E+00   0.00000000000000E+00   0.00000000000000E+00   0.00000000000000E+00  -3.88981198014872E-11
     -4.99035187271018E-23  -3.88981198015371E-11   5.93985554695219E-18   5.00000000000000E-02   5.00000000000000E-02
      0.00000000000000E+00   0.00000000000000E+00   3.88981198194888E-11   2.85571383626036E-23   3.88981198195174E-11
      7.39252166613293E-18   2.50693333333333E-03   2.50693333333333E-03   0.00000000000000E+00   0.00000000000000E+00
      0.00000000000000E+00   0.00000000000000E+00   0.00000000000000E+00  -5.13744345687193E-19
      5.27093333333333E-03
      0.00000000000000E+00   0.00000000000000E+00   0.00000000000000E+00   0.00000000000000E+00  -4.02799799205092E-11
     -4.99086822056537E-23  -4.02799799205591E-11   5.93711309506634E-18   5.00000000000000E-02   5.00000000000000E-02
      0.00000000000000E+00   0.00000000000000E+00   4.02799799412342E-11   2.85555878577156E-23   4.02799799412628E-11
      7.38747272571348E-18   3.68965333333333E-03   3.68965333333333E-03   0.00000000000000E+00   0.00000000000000E+00
      0.00000000000000E+00   0.00000000000000E+00   0.00000000000000E+00  -5.04021338413873E-19
      7.29845333333333E-03
      0.00000000000000E+00   0.00000000000000E+00   0.00000000000000E+00   0.00000000000000E+00  -4.20033604312180E-11
     -4.99149672438403E-23  -4.20033604312679E-11   5.93382207180353E-18   5.00000000000000E-02   5.00000000000000E-02
      0.00000000000000E+00   0.00000000000000E+00   4.20033604651124E-11   2.85537167987328E-23   4.20033604651410E-11
      7.38140945219628E-18   5.10891733333333E-03   5.10891733333333E-03   0.00000000000000E+00   0.00000000000000E+00
      0.00000000000000E+00   0.00000000000000E+00   0.00000000000000E+00  -4.92348814952436E-19
      9.73147733333333E-03
      0.00000000000000E+00   0.00000000000000E+00   0.00000000000000E+00   0.00000000000000E+00  -4.41698159044560E-11
     -4.99226272714592E-23  -4.41698159045060E-11   5.92987274690373E-18   5.00000000000000E-02   5.00000000000000E-02
      0.00000000000000E+00   0.00000000000000E+00   4.41698159269877E-11   2.85514431724646E-23   4.41698159270162E-11
      7.37412698651389E-18   6.81203413333333E-03   6.81203413333333E-03   0.00000000000000E+00   0.00000000000000E+00
      0.00000000000000E+00   0.00000000000000E+00   0.00000000000000E+00  -4.78334682067215E-19
      1.26511061333333E-02
      0.00000000000000E+00   0.00000000000000E+00   0.00000000000000E+00   0.00000000000000E+00  -4.69186014355403E-11
     -4.99319914041190E-23  -4.69186014355902E-11   5.92513344177584E-18   5.00000000000000E-02   5.00000000000000E-02
      0.00000000000000E+00   0.00000000000000E+00   4.69186014419290E-11   2.85486982270727E-23   4.69186014419575E-11
      7.36537861670945E-18   8.85577429333333E-03   8.85577429333333E-03   0.00000000000000E+00   0.00000000000000E+00
      0.00000000000000E+00   0.00000000000000E+00   0.00000000000000E+00  -4.61507448426965E-19
      1.61546606933333E-02
      0.00000000000000E+00   0.00000000000000E+00   0.00000000000000E+00   0.00000000000000E+00  -5.04455770798187E-11
     -4.99434406505011E-23  -5.04455770798686E-11   5.91944618277969E-18   5.00000000000000E-02   5.00000000000000E-02
      0.00000000000000E+00   0.00000000000000E+00   5.04455771158034E-11   2.85453843626651E-23   5.04455771158320E-11
      7.35486705699498E-18   1.13082624853333E-02   1.13082624853333E-02   0.00000000000000E+00   0.00000000000000E+00
      0.00000000000000E+00   0.00000000000000E+00   0.00000000000000E+00  -4.41299882522619E-19
      2.03589261653333E-02
      0.00000000000000E+00   0.00000000000000E+00   0.00000000000000E+00   0.00000000000000E+00  -5.50315732824159E-11
     -4.99574587796088E-23  -5.50315732824659E-11   5.91262143405371E-18   5.00000000000000E-02   5.00000000000000E-02
      0.00000000000000E+00   0.00000000000000E+00   5.50315732223304E-11   2.85413630663743E-23   5.50315732223589E-11
      7.34223375261852E-18   1.42512483157333E-02   1.42512483157333E-02   0.00000000000000E+00   0.00000000000000E+00
      0.00000000000000E+00   0.00000000000000E+00   0.00000000000000E+00  -4.17029224055301E-19
      2.53479878587733E-02
      0.00000000000000E+00   0.00000000000000E+00   0.00000000000000E+00   0.00000000000000E+00  -6.10203407268960E-11
     -4.99743967841108E-23  -6.10203407269460E-11   5.90452288671888E-18   5.00000000000000E-02   5.00000000000000E-02
      0.00000000000000E+00   0.00000000000000E+00   6.10203407162227E-11   2.85365504401986E-23   6.10203407162512E-11
      7.32721482395191E-18   1.77435915011413E-02   1.77435915011413E-02   0.00000000000000E+00   0.00000000000000E+00
      0.00000000000000E+00   0.00000000000000E+00   0.00000000000000E+00  -3.88197230801232E-19
      3.12683410683221E-02
      0.00000000000000E+00   0.00000000000000E+00   0.00000000000000E+00   0.00000000000000E+00  -6.89850157713715E-11
     -4.99947847325942E-23  -6.89850157714215E-11   5.89491317046229E-18   5.00000000000000E-02   5.00000000000000E-02
      0.00000000000000E+00   0.00000000000000E+00   6.89850157777940E-11   2.85308203910445E-23   6.89850157778226E-11
      7.30935391929239E-18   2.18878387478255E-02   2.18878387478255E-02   0.00000000000000E+00   0.00000000000000E+00
      0.00000000000000E+00   0.00000000000000E+00   0.00000000000000E+00  -3.53939419908869E-19
      3.82938268769867E-02
      0.00000000000000E+00   0.00000000000000E+00   0.00000000000000E+00   0.00000000000000E+00  -7.98062596159601E-11
     -5.00191125804479E-23  -7.98062596160102E-11   5.88351105201574E-18   5.00000000000000E-02   5.00000000000000E-02
      0.00000000000000E+00   0.00000000000000E+00   7.98062595926982E-11   2.85240282341391E-23   7.98062595927268E-11
      7.28810514453643E-18   2.68056788138907E-02   2.68056788138907E-02   0.00000000000000E+00   0.00000000000000E+00
      0.00000000000000E+00   0.00000000000000E+00   0.00000000000000E+00  -3.13224270826901E-19
      4.66307367032687E-02
      0.00000000000000E+00   0.00000000000000E+00   0.00000000000000E+00   0.00000000000000E+00  -9.48859310851483E-11
     -5.00476804989159E-23  -9.48859310851984E-11   5.86998362977347E-18   5.00000000000000E-02   5.00000000000000E-02
      0.00000000000000E+00   0.00000000000000E+00   9.48859310648127E-11   2.85160447657708E-23   9.48859310648412E-11
      7.26281467460768E-18   3.26415156922881E-02   3.26415156922881E-02   0.00000000000000E+00   0.00000000000000E+00
      0.00000000000000E+00   0.00000000000000E+00   0.00000000000000E+00  -2.64819473648144E-19
      5.65238696971232E-02
      0.00000000000000E+00   0.00000000000000E+00   0.00000000000000E+00   0.00000000000000E+00  -1.16548724861023E-10
     -5.00802645709478E-23  -1.16548724861073E-10   5.85393741933007E-18   5.00000000000000E-02   5.00000000000000E-02
      0.00000000000000E+00   0.00000000000000E+00   1.16548724884307E-10   2.85068002702854E-23   1.16548724884335E-10
      7.23269837066905E-18   3.95667087879863E-02   3.95667087879863E-02   0.00000000000000E+00   0.00000000000000E+00
      0.00000000000000E+00   0.00000000000000E+00   0.00000000000000E+00  -2.07250606174505E-19
      6.82637208498307E-02
      0.00000000000000E+00   0.00000000000000E+00   0.00000000000000E+00   0.00000000000000E+00  -1.48806024151988E-10
     -5.01157357083397E-23  -1.48806024152038E-10   5.83490813040758E-18   5.00000000000000E-02   5.00000000000000E-02
      0.00000000000000E+00   0.00000000000000E+00   1.48806024134106E-10   2.84962791650729E-23   1.48806024134134E-10
      7.19681423798452E-18   4.77846045948815E-02   4.77846045948815E-02   0.00000000000000E+00   0.00000000000000E+00
      0.00000000000000E+00   0.00000000000000E+00   0.00000000000000E+00  -1.38750257636998E-19
      8.21950108843768E-02
      0.00000000000000E+00   0.00000000000000E+00   0.00000000000000E+00   0.00000000000000E+00  -1.98937362310050E-10
     -5.01513299242268E-23  -1.98937362310100E-10   5.81234948979300E-18   5.00000000000000E-02   5.00000000000000E-02